 Gaussian 16, Revision C.02,
 Gaussian 16:  AS64L-G16RevC.02  7-Dec-2021

 ----------------------------------------------------------------------
 #p PM7 irc=(lqa,forward,rcfc,noeig,maxcyc=30,maxpoints=30,stepsize=15)
  geom=check guess=read IOp(2/15=3) IOp(2/12=3)
 ----------------------------------------------------------------------

 -----
 title
 -----
 Structure from the checkpoint file:  "IM5_tsopt_F.chk"
 Charge =  1 Multiplicity = 1

 SCF Done:  E(RPM7) =  0.274908929408     A.U. after   12 cycles
 SCF Done:  E(RPM7) =  0.273235521365     A.U. after   12 cycles
 SCF Done:  E(RPM7) =  0.270730824526     A.U. after   12 cycles
 SCF Done:  E(RPM7) =  0.267746483794     A.U. after   12 cycles
 SCF Done:  E(RPM7) =  0.264653818000     A.U. after   12 cycles
 SCF Done:  E(RPM7) =  0.261767573385     A.U. after   12 cycles
 SCF Done:  E(RPM7) =  0.259285601480     A.U. after   12 cycles
 SCF Done:  E(RPM7) =  0.257259407720     A.U. after   12 cycles
 SCF Done:  E(RPM7) =  0.255622951256     A.U. after   12 cycles
 SCF Done:  E(RPM7) =  0.254276390301     A.U. after   12 cycles
 SCF Done:  E(RPM7) =  0.247926808078     A.U. after   12 cycles
 SCF Done:  E(RPM7) =  0.247700372164     A.U. after   11 cycles
 SCF Done:  E(RPM7) =  0.247499317854     A.U. after   11 cycles
 SCF Done:  E(RPM7) =  0.247337497286     A.U. after   12 cycles
 SCF Done:  E(RPM7) =  0.247146766456     A.U. after   11 cycles
 SCF Done:  E(RPM7) =  0.246977315040     A.U. after   11 cycles
 SCF Done:  E(RPM7) =  0.246813732850     A.U. after   11 cycles
 SCF Done:  E(RPM7) =  0.246659551861     A.U. after   11 cycles
 SCF Done:  E(RPM7) =  0.246512709838     A.U. after   11 cycles
 SCF Done:  E(RPM7) =  0.246375827461     A.U. after   11 cycles

                          Input orientation:
 ---------------------------------------------------------------------
 Center     Atomic      Atomic             Coordinates (Angstroms)
 Number     Number       Type             X           Y           Z
 ---------------------------------------------------------------------
      1          6           0       -0.393321   -1.549962    0.004832
      2          6           0       -1.842628   -1.000307   -0.053729
      3          6           0       -2.049641    0.241456    0.837086
      4          6           0        0.700420   -0.680282    0.633937
      5          6           0       -1.565026    1.505858    0.183001
      6          6           0        0.910660    0.682024    0.107786
      7          6           0       -0.084504    1.661556   -0.234447
      8          1           0       -0.395401   -2.512502    0.563576
      9          1           0       -1.598780    0.079514    1.833405
     10          1           0       -0.090396   -1.830126   -1.030711
     11          1           0       -3.139843    0.353837    1.055595
     12          1           0       -2.303671    1.916108   -0.530129
     13          1           0        0.441665   -0.572327    1.736503
     14          6           0        2.343751    1.011826    0.028157
     15          1           0        2.596794    1.992508    0.494724
     16          1           0        2.673098    1.158946   -1.034095
     17          6           0        3.091329   -0.166169    0.671009
     18          1           0        4.059858   -0.367733    0.176639
     19          1           0        3.343609    0.042121    1.727317
     20          6           0        2.117386   -1.358078    0.547172
     21          1           0        2.241281   -2.065596    1.399037
     22          6           0        2.361741   -2.101803   -0.760600
     23          1           0        3.406215   -2.446631   -0.828467
     24          1           0        1.745762   -3.008227   -0.845509
     25          1           0        2.172218   -1.483981   -1.643963
     26          6           0       -0.703254    2.461804    0.936185
     27          1           0       -0.820188    3.542345    0.799549
     28          1           0       -0.401178    2.254211    1.961354
     29          6           0       -2.191881   -0.680925   -1.515765
     30          1           0       -1.476693    0.004165   -1.978102
     31          1           0       -2.213755   -1.592285   -2.129479
     32          1           0       -3.188657   -0.228313   -1.600269
     33          6           0       -2.802442   -2.096447    0.441391
     34          1           0       -2.656288   -2.325411    1.502886
     35          1           0       -3.852129   -1.799195    0.313444
     36          1           0       -2.674483   -3.031262   -0.119407
     37          6           0        0.215412    2.410091   -1.509775
     38          1           0        1.084888    3.077224   -1.417708
     39          1           0        0.388805    1.731546   -2.358190
     40          1           0       -0.628678    3.055115   -1.813412
 ---------------------------------------------------------------------

 Alpha  occ. eigenvalues --   -1.34195  -1.27566  -1.21979  -1.13124  -1.10113
 Alpha  occ. eigenvalues --   -1.08507  -1.01032  -1.00038  -0.99685  -0.96725
 Alpha  occ. eigenvalues --   -0.91064  -0.88413  -0.84583  -0.81146  -0.79774
 Alpha  occ. eigenvalues --   -0.75954  -0.75107  -0.74270  -0.71392  -0.69073
 Alpha  occ. eigenvalues --   -0.68773  -0.67510  -0.67174  -0.65669  -0.64852
 Alpha  occ. eigenvalues --   -0.64255  -0.63734  -0.62964  -0.62302  -0.61885
 Alpha  occ. eigenvalues --   -0.60900  -0.59397  -0.58721  -0.58201  -0.57783
 Alpha  occ. eigenvalues --   -0.57549  -0.57026  -0.56162  -0.55095  -0.54015
 Alpha  occ. eigenvalues --   -0.53635  -0.53120
 Alpha virt. eigenvalues --   -0.21281  -0.07886  -0.05312  -0.04591  -0.04336
 Alpha virt. eigenvalues --   -0.02385  -0.01617  -0.01108  -0.00467   0.00047
 Alpha virt. eigenvalues --    0.00977   0.01109   0.01510   0.02080   0.02437

 Mulliken charges:
               1
     1  C   -0.302989
     2  C    0.105408
     3  C   -0.322800
     4  C   -0.243643
     5  C   -0.069586
     6  C    0.490504
     7  C   -0.213473
     8  H    0.175964
     9  H    0.147986
    10  H    0.170086
    11  H    0.185307
    12  H    0.188633
    13  H    0.216042
    14  C   -0.390705
    15  H    0.217127
    16  H    0.229202
    17  C   -0.279865
    18  H    0.181452
    19  H    0.164801
    20  C   -0.076611
    21  H    0.166614
    22  C   -0.458518
    23  H    0.176004
    24  H    0.166294
    25  H    0.146777
    26  C   -0.255053
    27  H    0.197833
    28  H    0.171936
    29  C   -0.470309
    30  H    0.137826
    31  H    0.165174
    32  H    0.165056
    33  C   -0.465094
    34  H    0.153492
    35  H    0.165444
    36  H    0.162273
    37  C   -0.424954
    38  H    0.170170
    39  H    0.166881
    40  H    0.189315
 Sum of Mulliken charges =   1.00000

 Dipole moment (field-independent basis, Debye):
    X=              2.8813    Y=              2.5329    Z=              0.5134  Tot=              3.8705
 N-N= 6.302431313535D+02 E-N=-1.068723290855D+03  KE=-1.265809583478D+02
  Exact polarizability:       0.000       0.000       0.000       0.000       0.000       0.000
 Approx polarizability:      77.194      -0.990      73.438      -2.451      -1.065      64.793
 Leave Link  601 at Thu Mar 27 17:19:55 2025, MaxMem=  8053063680 cpu:               0.0 elap:               0.0
 (Enter /home/apps/g16_C02_zen2/g16/l9999.exe)

 This type of calculation cannot be archived.

 THE POLHOLDE ROLLS WITHOUT SLIPPING ON THE HERPOLHOLDE LYING IN

 Normal termination of Gaussian 16 at Thu Mar 27 17:19:55 2025.
