 Gaussian 16, Revision C.02,
 Gaussian 16:  AS64L-G16RevC.02  7-Dec-2021

 -------------------------------------------------------------
 #p PM7 opt=readfc geom=check guess=read freq=noraman pop=none
 -------------------------------------------------------------

 -----
 title
 -----
 Structure from the checkpoint file:  "IM5_tsopt_Ropt.chk"
 Charge =  1 Multiplicity = 1

 SCF Done:  E(RPM7) =  0.248507536243     A.U. after    2 cycles
 SCF Done:  E(RPM7) =  0.255444190234     A.U. after   13 cycles
 SCF Done:  E(RPM7) =  0.248202133288     A.U. after   13 cycles
 SCF Done:  E(RPM7) =  0.247347308316     A.U. after   12 cycles
 SCF Done:  E(RPM7) =  0.246924754702     A.U. after   12 cycles
 SCF Done:  E(RPM7) =  0.246020238290     A.U. after   13 cycles
 SCF Done:  E(RPM7) =  0.245766473142     A.U. after   12 cycles
 SCF Done:  E(RPM7) =  0.245074227238     A.U. after   12 cycles
 SCF Done:  E(RPM7) =  0.244681508501     A.U. after   13 cycles
 SCF Done:  E(RPM7) =  0.244426134363     A.U. after   13 cycles
 SCF Done:  E(RPM7) =  0.242183027198     A.U. after   12 cycles
 SCF Done:  E(RPM7) =  0.242155173345     A.U. after   11 cycles
 SCF Done:  E(RPM7) =  0.242144616920     A.U. after   10 cycles
 SCF Done:  E(RPM7) =  0.242134961806     A.U. after   10 cycles
 SCF Done:  E(RPM7) =  0.242131679027     A.U. after   10 cycles
 SCF Done:  E(RPM7) =  0.242122549347     A.U. after   11 cycles
 SCF Done:  E(RPM7) =  0.242122136897     A.U. after    9 cycles
 SCF Done:  E(RPM7) =  0.242121096763     A.U. after   10 cycles
 SCF Done:  E(RPM7) =  0.242121044065     A.U. after    8 cycles
 Optimization completed.
    -- Stationary point found.
 Normal termination of Gaussian 16 at Thu Mar 27 17:21:56 2025.

 -------------------------------------------------------------
 #P Geom=AllCheck Guess=TCheck SCRF=Check GenChk RPM7/ZDO Freq
 -------------------------------------------------------------

 Structure from the checkpoint file:  "IM5_tsopt_Ropt.chk"
 -----
 title
 -----
 Charge =  1 Multiplicity = 1

                         Standard orientation:
 ---------------------------------------------------------------------
 Center     Atomic      Atomic             Coordinates (Angstroms)
 Number     Number       Type             X           Y           Z
 ---------------------------------------------------------------------
      1          6           0        0.873497   -1.264395   -0.847767
      2          6           0        2.029316   -0.510537   -0.081431
      3          6           0        2.008977    0.995103   -0.400771
      4          6           0       -0.469943   -0.776681   -0.621632
      5          6           0        0.999978    1.756988    0.415492
      6          6           0       -0.942310    0.598392   -0.907079
      7          6           0       -0.500366    1.535864    0.218211
      8          1           0        1.122002   -1.182696   -1.944070
      9          1           0        1.868150    1.159070   -1.486239
     10          1           0        0.984634   -2.352873   -0.618360
     11          1           0        3.020135    1.424887   -0.196378
     12          1           0        1.346491    1.921458    1.449107
     13          1           0       -0.505431    0.989246   -1.868779
     14          6           0       -2.474969    0.470816   -1.051588
     15          1           0       -2.764515    0.426403   -2.118984
     16          1           0       -3.004180    1.356275   -0.651522
     17          6           0       -2.869749   -0.818438   -0.312598
     18          1           0       -3.266142   -0.594302    0.696102
     19          1           0       -3.687617   -1.351945   -0.831548
     20          6           0       -1.587020   -1.676594   -0.236622
     21          1           0       -1.659395   -2.516673   -0.992359
     22          6           0       -1.362623   -2.304154    1.136656
     23          1           0       -2.211046   -2.958302    1.406067
     24          1           0       -0.460432   -2.929460    1.176288
     25          1           0       -1.283655   -1.555073    1.936343
     26          6           0        0.156013    2.839542   -0.206556
     27          1           0       -0.055474    3.750830    0.357037
     28          1           0        0.262806    3.092013   -1.258553
     29          6           0        1.885913   -0.789003    1.413488
     30          1           0        0.924822   -0.458045    1.819094
     31          1           0        2.000221   -1.855127    1.648871
     32          1           0        2.667383   -0.263810    1.986374
     33          6           0        3.349879   -1.105475   -0.586406
     34          1           0        3.530415   -0.893379   -1.646904
     35          1           0        4.206509   -0.691455   -0.031756
     36          1           0        3.398472   -2.193326   -0.451902
     37          6           0       -1.367142    1.546610    1.445569
     38          1           0       -2.349988    2.004523    1.251280
     39          1           0       -1.542093    0.543200    1.849237
     40          1           0       -0.918775    2.140342    2.259757
 ---------------------------------------------------------------------

 SCF Done:  E(RPM7) =  0.242121044068     A.U. after    2 cycles

 Isotropic polarizability for W=    0.000000      101.60 Bohr**3.
 End of Minotr F.D. properties file   721 does not exist.

                      1                      2                      3
                      A                      A                      A
 Frequencies --     59.9058                71.0903                98.7625
 Red. masses --      2.8865                 2.7986                 1.5951
 Frc consts  --      0.0061                 0.0083                 0.0092
 IR Inten    --      0.2931                 1.0601                 0.0508

                      4                      5                      6
                      A                      A                      A
 Frequencies --    113.0992               143.5583               163.5184
 Red. masses --      2.2603                 1.1317                 1.3386
 Frc consts  --      0.0170                 0.0137                 0.0211
 IR Inten    --      0.2759                 0.0378                 0.0371

                      7                      8                      9
                      A                      A                      A
 Frequencies --    189.4105               198.5945               203.2464
 Red. masses --      1.0908                 2.2099                 2.1432
 Frc consts  --      0.0231                 0.0514                 0.0522
 IR Inten    --      0.0529                 0.1604                 0.2752

                     10                     11                     12
                      A                      A                      A
 Frequencies --    232.2101               251.4318               267.9578
 Red. masses --      1.2669                 2.6952                 2.6269
 Frc consts  --      0.0402                 0.1004                 0.1111
 IR Inten    --      0.2179                 0.0349                 0.4107

                     13                     14                     15
                      A                      A                      A
 Frequencies --    300.3254               306.1391               324.0285
 Red. masses --      2.8335                 3.0709                 2.8426
 Frc consts  --      0.1506                 0.1696                 0.1758
 IR Inten    --      0.9227                 1.3024                 0.2950

                     16                     17                     18
                      A                      A                      A
 Frequencies --    375.0033               380.5359               390.1843
 Red. masses --      2.8628                 2.8340                 2.4119
 Frc consts  --      0.2372                 0.2418                 0.2163
 IR Inten    --      0.6367                 1.0684                 0.9984

                     19                     20                     21
                      A                      A                      A
 Frequencies --    412.8244               437.9694               463.9339
 Red. masses --      2.4563                 2.5331                 2.4677
 Frc consts  --      0.2466                 0.2863                 0.3129
 IR Inten    --      1.7183                 1.7332                 0.7353

                     22                     23                     24
                      A                      A                      A
 Frequencies --    485.8579               536.1024               601.1519
 Red. masses --      2.5660                 3.0276                 3.6074
 Frc consts  --      0.3569                 0.5127                 0.7681
 IR Inten    --      2.3901                 4.1961                 1.7377

                     25                     26                     27
                      A                      A                      A
 Frequencies --    612.6767               676.0659               762.3577
 Red. masses --      3.3008                 4.8005                 2.3794
 Frc consts  --      0.7300                 1.2928                 0.8148
 IR Inten    --      7.6727                 1.9351                20.8581

                     28                     29                     30
                      A                      A                      A
 Frequencies --    803.2687               838.0349               857.5354
 Red. masses --      2.7677                 2.6310                 1.7364
 Frc consts  --      1.0522                 1.0887                 0.7523
 IR Inten    --      2.7989                41.4140                12.6783

                     31                     32                     33
                      A                      A                      A
 Frequencies --    864.3106               891.6914               906.0369
 Red. masses --      1.3909                 2.0038                 2.3916
 Frc consts  --      0.6122                 0.9387                 1.1567
 IR Inten    --      3.9650                12.2941                 7.2654

                     34                     35                     36
                      A                      A                      A
 Frequencies --    917.2264               937.7796               949.5500
 Red. masses --      2.2376                 1.9543                 1.9762
 Frc consts  --      1.1091                 1.0126                 1.0498
 IR Inten    --     30.5537                20.3950                 6.7947

                     37                     38                     39
                      A                      A                      A
 Frequencies --    956.5275               983.1790               986.5470
 Red. masses --      2.0348                 1.4713                 1.5223
 Frc consts  --      1.0969                 0.8380                 0.8730
 IR Inten    --      6.4444                 8.7754                 0.4226

                     40                     41                     42
                      A                      A                      A
 Frequencies --   1004.1435              1013.8867              1026.1143
 Red. masses --      1.5400                 1.4934                 1.2635
 Frc consts  --      0.9148                 0.9045                 0.7838
 IR Inten    --     79.1297                 5.0624                 3.9488

                     43                     44                     45
                      A                      A                      A
 Frequencies --   1041.1434              1048.1023              1056.6891
 Red. masses --      1.9087                 1.5877                 1.4520
 Frc consts  --      1.2190                 1.0276                 0.9552
 IR Inten    --     45.1866                71.7234                53.0125

                     46                     47                     48
                      A                      A                      A
 Frequencies --   1078.5237              1083.2385              1092.3092
 Red. masses --      1.3846                 1.7647                 1.5530
 Frc consts  --      0.9489                 1.2201                 1.0917
 IR Inten    --     10.6779                25.6490                 2.5257

                     49                     50                     51
                      A                      A                      A
 Frequencies --   1101.6546              1106.7470              1134.0653
 Red. masses --      1.4818                 3.2223                 1.5864
 Frc consts  --      1.0596                 2.3255                 1.2021
 IR Inten    --     26.8777                 0.5048                37.9594

                     52                     53                     54
                      A                      A                      A
 Frequencies --   1149.8277              1163.6709              1166.2462
 Red. masses --      1.6479                 1.5523                 1.6643
 Frc consts  --      1.2837                 1.2385                 1.3337
 IR Inten    --    135.2048                36.6839                15.4171

                     55                     56                     57
                      A                      A                      A
 Frequencies --   1176.6435              1177.2898              1182.9632
 Red. masses --      1.6494                 1.5632                 1.5990
 Frc consts  --      1.3455                 1.2765                 1.3184
 IR Inten    --     16.2846                 7.0196                40.1236

                     58                     59                     60
                      A                      A                      A
 Frequencies --   1199.7366              1213.5055              1215.6096
 Red. masses --      1.4953                 1.5083                 1.7791
 Frc consts  --      1.2681                 1.3086                 1.5490
 IR Inten    --     95.0832                18.8940                27.9868

                     61                     62                     63
                      A                      A                      A
 Frequencies --   1219.7402              1232.5885              1252.4560
 Red. masses --      2.5857                 1.8253                 1.2391
 Frc consts  --      2.2666                 1.6339                 1.1452
 IR Inten    --     19.0636               136.9913                74.7666

                     64                     65                     66
                      A                      A                      A
 Frequencies --   1264.0471              1266.4916              1273.4101
 Red. masses --      1.6381                 1.6060                 1.0693
 Frc consts  --      1.5422                 1.5178                 1.0216
 IR Inten    --     79.8425                69.4962                27.4675

                     67                     68                     69
                      A                      A                      A
 Frequencies --   1274.4463              1277.8378              1280.2919
 Red. masses --      1.1252                 1.1543                 1.0875
 Frc consts  --      1.0768                 1.1105                 1.0503
 IR Inten    --    120.3737                44.8115                24.2189

                     70                     71                     72
                      A                      A                      A
 Frequencies --   1281.5593              1289.3754              1293.1787
 Red. masses --      1.0692                 1.1070                 1.0831
 Frc consts  --      1.0346                 1.0843                 1.0671
 IR Inten    --     68.1669                93.8653                59.4042

                     73                     74                     75
                      A                      A                      A
 Frequencies --   1301.1846              1304.9872              1305.7272
 Red. masses --      1.0883                 1.3404                 1.4197
 Frc consts  --      1.0857                 1.3449                 1.4261
 IR Inten    --     15.9607                11.2438                39.6332

                     76                     77                     78
                      A                      A                      A
 Frequencies --   1314.1519              1319.8505              1327.6311
 Red. masses --      1.1370                 1.4058                 1.1416
 Frc consts  --      1.1569                 1.4428                 1.1856
 IR Inten    --     38.5794                41.1499                40.4703

                     79                     80                     81
                      A                      A                      A
 Frequencies --   1345.3646              1353.5827              1359.9297
 Red. masses --      1.2156                 1.2977                 1.1699
 Frc consts  --      1.2964                 1.4009                 1.2748
 IR Inten    --      1.7172               134.2174                84.1281

                     82                     83                     84
                      A                      A                      A
 Frequencies --   1365.9682              1373.2409              1392.7731
 Red. masses --      1.2525                 1.3068                 1.2792
 Frc consts  --      1.3769                 1.4520                 1.4620
 IR Inten    --    136.9829                49.6719                74.6886

                     85                     86                     87
                      A                      A                      A
 Frequencies --   1397.6708              1404.2448              1408.6076
 Red. masses --      1.1909                 1.2555                 1.2228
 Frc consts  --      1.3707                 1.4586                 1.4295
 IR Inten    --     46.3382                69.4351                 6.7303

                     88                     89                     90
                      A                      A                      A
 Frequencies --   1425.0119              1490.4596              2595.2940
 Red. masses --      3.6423                 5.9304                 1.0770
 Frc consts  --      4.3578                 7.7620                 4.2742
 IR Inten    --    200.1900                 2.9568               119.2399

                     91                     92                     93
                      A                      A                      A
 Frequencies --   2627.9847              2640.0180              2643.7711
 Red. masses --      1.0606                 1.0755                 1.0788
 Frc consts  --      4.3155                 4.4163                 4.4427
 IR Inten    --     31.0054                10.4255                33.1440

                     94                     95                     96
                      A                      A                      A
 Frequencies --   2650.0096              2654.4490              2655.8210
 Red. masses --      1.0840                 1.0842                 1.0712
 Frc consts  --      4.4852                 4.5011                 4.4514
 IR Inten    --    103.6989               101.5885                50.4526

                     97                     98                     99
                      A                      A                      A
 Frequencies --   2656.9419              2661.2094              2662.7488
 Red. masses --      1.0845                 1.0821                 1.0854
 Frc consts  --      4.5108                 4.5152                 4.5342
 IR Inten    --      3.7865                39.0003               144.4541

                    100                    101                    102
                      A                      A                      A
 Frequencies --   2668.1918              2668.9884              2670.3023
 Red. masses --      1.0858                 1.0866                 1.0868
 Frc consts  --      4.5544                 4.5605                 4.5659
 IR Inten    --     29.3672               151.9437               196.7019

                    103                    104                    105
                      A                      A                      A
 Frequencies --   2673.7737              2694.6780              2696.2957
 Red. masses --      1.0875                 1.0794                 1.0569
 Frc consts  --      4.5807                 4.6178                 4.5269
 IR Inten    --     91.4440                16.6841               300.5735

                    106                    107                    108
                      A                      A                      A
 Frequencies --   2730.3499              2738.2886              2740.1097
 Red. masses --      1.0535                 1.0529                 1.0620
 Frc consts  --      4.6272                 4.6514                 4.6981
 IR Inten    --    111.4032                51.9194                95.8157

                    109                    110                    111
                      A                      A                      A
 Frequencies --   2740.6350              2769.1659              2773.7110
 Red. masses --      1.0470                 1.0308                 1.0400
 Frc consts  --      4.6335                 4.6570                 4.7142
 IR Inten    --     96.9064                59.8366                66.0094

                    112                    113                    114
                      A                      A                      A
 Frequencies --   2776.0958              2776.8826              2779.1773
 Red. masses --      1.0307                 1.0384                 1.0310
 Frc consts  --      4.6799                 4.7176                 4.6918
 IR Inten    --     55.9171                75.3736                33.2437

 - Thermochemistry -
 -------------------
 Temperature   298.150 Kelvin.  Pressure   1.00000 Atm.
 Atom     1 has atomic number  6 and mass  12.00000

 Molecular mass:   205.19563 amu.
 Principal axes and moments of inertia in atomic units:
                           1         2         3
     Eigenvalues --  2207.749723051.217044093.05988
           X            0.99977  -0.01967  -0.00845
           Y            0.01959   0.99977  -0.00904
           Z            0.00863   0.00887   0.99992
 This molecule is an asymmetric top.
 Rotational symmetry number  1.
 Warning -- assumption of classical behavior for rotation
           may cause significant error
 Rotational temperatures (Kelvin)      0.03923     0.02839     0.02116
 Rotational constants (GHZ):           0.81746     0.59148     0.44093
 Zero-point vibrational energy     891950.3 (Joules/Mol)
                                  213.18124 (Kcal/Mol)
 Warning -- explicit consideration of  25 degrees of freedom as
           vibrations may cause significant error
 Vibrational temperatures:     86.19   102.28   142.10   162.72   206.55
          (Kelvin)            235.27   272.52   285.73   292.43   334.10
                              361.75   385.53   432.10   440.47   466.20
                              539.55   547.51   561.39   593.96   630.14
                              667.50   699.04   771.33   864.92   881.51
                              972.71  1096.86  1155.72  1205.75  1233.80
                             1243.55  1282.95  1303.59  1319.68  1349.26
                             1366.19  1376.23  1414.58  1419.42  1444.74
                             1458.76  1476.35  1497.97  1507.99  1520.34
                             1551.76  1558.54  1571.59  1585.04  1592.36
                             1631.67  1654.35  1674.26  1677.97  1692.93
                             1693.86  1702.02  1726.15  1745.96  1748.99
                             1754.93  1773.42  1802.00  1818.68  1822.20
                             1832.15  1833.64  1838.52  1842.05  1843.88
                             1855.12  1860.60  1872.11  1877.59  1878.65
                             1890.77  1898.97  1910.17  1935.68  1947.50
                             1956.64  1965.32  1975.79  2003.89  2010.94
                             2020.40  2026.67  2050.27  2144.44  3734.05
                             3781.08  3798.40  3803.80  3812.77  3819.16
                             3821.13  3822.75  3828.89  3831.10  3838.93
                             3840.08  3841.97  3846.96  3877.04  3879.37
                             3928.36  3939.79  3942.41  3943.16  3984.21
                             3990.75  3994.18  3995.31  3998.62

 Zero-point correction=                           0.339726 (Hartree/Particle)
 Thermal correction to Energy=                    0.355483
 Thermal correction to Enthalpy=                  0.356427
 Thermal correction to Gibbs Free Energy=         0.298531
 Sum of electronic and zero-point Energies=              0.581847
 Sum of electronic and thermal Energies=                 0.597604
 Sum of electronic and thermal Enthalpies=               0.598548
 Sum of electronic and thermal Free Energies=            0.540652

                     E (Thermal)             CV                S
                      KCal/Mol        Cal/Mol-Kelvin    Cal/Mol-Kelvin
 Total                  223.069             63.819            121.853
 Electronic               0.000              0.000              0.000
 Translational            0.889              2.981             41.861
 Rotational               0.889              2.981             31.689
 Vibrational            221.292             57.857             48.303
 Vibration     1          0.597              1.973              4.460
 Vibration     2          0.598              1.968              4.123
 Vibration     3          0.604              1.950              3.479
 Vibration     4          0.607              1.939              3.215
 Vibration     5          0.616              1.910              2.756
 Vibration     6          0.623              1.887              2.509
 Vibration     7          0.633              1.854              2.234
 Vibration     8          0.637              1.842              2.146
 Vibration     9          0.639              1.835              2.104
 Vibration    10          0.653              1.792              1.862
 Vibration    11          0.663              1.760              1.721
 Vibration    12          0.673              1.732              1.609
 Vibration    13          0.693              1.673              1.415
 Vibration    14          0.697              1.662              1.383
 Vibration    15          0.709              1.627              1.290
 Vibration    16          0.746              1.523              1.059
 Vibration    17          0.750              1.512              1.037
 Vibration    18          0.758              1.491              0.999
 Vibration    19          0.777              1.442              0.917
 Vibration    20          0.798              1.387              0.833
 Vibration    21          0.821              1.330              0.755
 Vibration    22          0.842              1.281              0.694
 Vibration    23          0.891              1.170              0.574
 Vibration    24          0.959              1.029              0.448
 Vibration    25          0.972              1.005              0.428

                           ! Non-Optimized Parameters !
 Normal termination of Gaussian 16 at Thu Mar 27 17:21:57 2025.
