 Gaussian 16, Revision C.02,
 Gaussian 16:  AS64L-G16RevC.02  7-Dec-2021

 ----------------------------------------------------------------------
 #p PM7 opt=(calcfc,tight,ts,noeig,maxcyc=500) freq=noraman pop=none io
 p(1/8=10)
 ----------------------------------------------------------------------

 -----
 title
 -----
 Symbolic Z-matrix:
 Charge =  1 Multiplicity = 1

 SCF Done:  E(RPM7) =  0.273914122092     A.U. after   13 cycles
 SCF Done:  E(RPM7) =  0.274831947870     A.U. after   12 cycles
 SCF Done:  E(RPM7) =  0.275471542550     A.U. after   12 cycles
 SCF Done:  E(RPM7) =  0.275564381890     A.U. after   12 cycles
 SCF Done:  E(RPM7) =  0.275500856636     A.U. after   11 cycles
 SCF Done:  E(RPM7) =  0.275498955766     A.U. after   11 cycles
 SCF Done:  E(RPM7) =  0.275498560222     A.U. after    9 cycles
 SCF Done:  E(RPM7) =  0.275498380379     A.U. after   10 cycles
 SCF Done:  E(RPM7) =  0.275498364779     A.U. after    7 cycles
 SCF Done:  E(RPM7) =  0.275498362373     A.U. after    7 cycles
 SCF Done:  E(RPM7) =  0.275498362013     A.U. after    6 cycles
 SCF Done:  E(RPM7) =  0.275498361547     A.U. after    7 cycles
 SCF Done:  E(RPM7) =  0.275498361421     A.U. after    6 cycles
 SCF Done:  E(RPM7) =  0.275498361390     A.U. after    5 cycles
 Optimization completed.
    -- Stationary point found.
 Normal termination of Gaussian 16 at Thu Mar 27 17:16:46 2025.

 ------------------------------------------------------------------
 #P Geom=AllCheck Guess=TCheck SCRF=Check Test GenChk RPM7/ZDO Freq
 ------------------------------------------------------------------

 Structure from the checkpoint file:  "IM5_tsopt.chk"
 -----
 title
 -----
 Charge =  1 Multiplicity = 1

                         Standard orientation:
 ---------------------------------------------------------------------
 Center     Atomic      Atomic             Coordinates (Angstroms)
 Number     Number       Type             X           Y           Z
 ---------------------------------------------------------------------
      1          6           0        0.417492   -1.602614   -0.161200
      2          6           0        1.838093   -0.993897   -0.008506
      3          6           0        2.026371    0.248754   -0.905875
      4          6           0       -0.746655   -0.703214   -0.307229
      5          6           0        1.581088    1.519883   -0.233577
      6          6           0       -0.885446    0.698577   -0.176960
      7          6           0        0.121206    1.714427    0.174473
      8          1           0        0.426933   -2.330361   -1.011428
      9          1           0        1.545781    0.097076   -1.888598
     10          1           0        0.244253   -2.264883    0.730797
     11          1           0        3.110010    0.351209   -1.161450
     12          1           0        2.344102    1.904167    0.466041
     13          1           0       -0.574047    0.124090   -1.489842
     14          6           0       -2.340150    1.095652   -0.214957
     15          1           0       -2.538329    1.960233   -0.879261
     16          1           0       -2.669053    1.441952    0.792927
     17          6           0       -3.101278   -0.170424   -0.640849
     18          1           0       -4.038826   -0.293913   -0.064351
     19          1           0       -3.425608   -0.114081   -1.696330
     20          6           0       -2.130776   -1.353969   -0.412330
     21          1           0       -2.175400   -2.070258   -1.268231
     22          6           0       -2.449707   -2.099952    0.878779
     23          1           0       -3.484605   -2.480912    0.868428
     24          1           0       -1.805218   -2.976480    1.028378
     25          1           0       -2.357007   -1.461160    1.766727
     26          6           0        0.732715    2.531298   -0.956245
     27          1           0        0.914040    3.598619   -0.799200
     28          1           0        0.430863    2.375982   -1.987197
     29          6           0        2.096042   -0.671847    1.466619
     30          1           0        1.328849   -0.018539    1.893483
     31          1           0        2.127654   -1.581454    2.081422
     32          1           0        3.065571   -0.172892    1.603499
     33          6           0        2.844092   -2.067699   -0.457737
     34          1           0        2.768222   -2.290962   -1.527702
     35          1           0        3.878772   -1.746644   -0.269340
     36          1           0        2.710763   -3.009614    0.089035
     37          6           0       -0.180873    2.390442    1.486502
     38          1           0       -1.044321    3.068660    1.413966
     39          1           0       -0.381864    1.668882    2.290979
     40          1           0        0.665175    3.008778    1.831800
 ---------------------------------------------------------------------

 SCF Done:  E(RPM7) =  0.275498361393     A.U. after    2 cycles

 Isotropic polarizability for W=    0.000000      103.77 Bohr**3.
 End of Minotr F.D. properties file   721 does not exist.

 ******    1 imaginary frequencies (negative Signs) ******

                      1                      2                      3
                      A                      A                      A
 Frequencies --   -957.3647                38.7899                68.1205
 Red. masses --      1.5336                 2.5974                 2.6838
 Frc consts  --      0.8282                 0.0023                 0.0073
 IR Inten    --    962.4668                 0.6060                 0.1119

                      4                      5                      6
                      A                      A                      A
 Frequencies --    106.3427               119.3607               144.1903
 Red. masses --      2.4670                 2.1468                 1.0947
 Frc consts  --      0.0164                 0.0180                 0.0134
 IR Inten    --      0.4404                 0.0210                 0.0618

                      7                      8                      9
                      A                      A                      A
 Frequencies --    171.0709               202.2731               208.3850
 Red. masses --      1.0723                 1.1629                 1.9660
 Frc consts  --      0.0185                 0.0280                 0.0503
 IR Inten    --      0.1757                 0.1603                 0.9144

                     10                     11                     12
                      A                      A                      A
 Frequencies --    217.5224               234.2323               241.5745
 Red. masses --      1.7275                 2.5229                 1.3476
 Frc consts  --      0.0482                 0.0816                 0.0463
 IR Inten    --      0.2160                 0.4932                 0.1543

                     13                     14                     15
                      A                      A                      A
 Frequencies --    274.0845               275.5447               290.8140
 Red. masses --      2.9901                 2.6276                 3.0439
 Frc consts  --      0.1323                 0.1175                 0.1517
 IR Inten    --      0.2821                 0.9680                 0.6052

                     16                     17                     18
                      A                      A                      A
 Frequencies --    329.0807               361.6640               390.9604
 Red. masses --      3.0506                 3.1068                 2.2784
 Frc consts  --      0.1946                 0.2394                 0.2052
 IR Inten    --      0.2226                 0.5977                 3.5364

                     19                     20                     21
                      A                      A                      A
 Frequencies --    407.6191               444.2397               452.4752
 Red. masses --      2.3757                 3.0598                 2.3955
 Frc consts  --      0.2326                 0.3558                 0.2890
 IR Inten    --      0.5806                 1.5539                 1.7350

                     22                     23                     24
                      A                      A                      A
 Frequencies --    490.0890               506.7463               544.2943
 Red. masses --      2.9370                 2.9316                 3.1146
 Frc consts  --      0.4156                 0.4435                 0.5437
 IR Inten    --      2.2621                 0.9191                 2.5924

                     25                     26                     27
                      A                      A                      A
 Frequencies --    582.2629               639.3273               707.2160
 Red. masses --      3.3542                 2.6559                 2.2403
 Frc consts  --      0.6700                 0.6396                 0.6602
 IR Inten    --      5.9250                 2.2776                11.0125

                     28                     29                     30
                      A                      A                      A
 Frequencies --    752.1548               815.7321               842.4574
 Red. masses --      3.8319                 2.1857                 1.4198
 Frc consts  --      1.2773                 0.8569                 0.5937
 IR Inten    --      1.2106                 3.1932                44.0504

                     31                     32                     33
                      A                      A                      A
 Frequencies --    860.5599               868.1762               904.1599
 Red. masses --      1.6908                 2.7933                 2.4687
 Frc consts  --      0.7377                 1.2405                 1.1891
 IR Inten    --      2.0964                 7.1085                 3.2569

                     34                     35                     36
                      A                      A                      A
 Frequencies --    923.0767               926.7230               946.4416
 Red. masses --      1.9082                 2.1543                 1.6456
 Frc consts  --      0.9580                 1.0901                 0.8685
 IR Inten    --     16.1754                11.4494                17.0534

                     37                     38                     39
                      A                      A                      A
 Frequencies --    952.5213               965.8423               976.4955
 Red. masses --      1.3899                 1.7204                 1.8365
 Frc consts  --      0.7430                 0.9456                 1.0317
 IR Inten    --     49.8481                12.1953                29.9193

                     40                     41                     42
                      A                      A                      A
 Frequencies --    981.1504               987.5208              1005.1456
 Red. masses --      1.5788                 1.5147                 1.6159
 Frc consts  --      0.8954                 0.8703                 0.9619
 IR Inten    --      4.5983                 5.2386                 4.6100

                     43                     44                     45
                      A                      A                      A
 Frequencies --   1017.7655              1031.6777              1054.6656
 Red. masses --      1.5323                 1.2539                 1.3758
 Frc consts  --      0.9352                 0.7863                 0.9017
 IR Inten    --      3.3966                 1.3243                22.5027

                     46                     47                     48
                      A                      A                      A
 Frequencies --   1073.4974              1085.0821              1091.1962
 Red. masses --      2.1550                 1.6100                 1.7982
 Frc consts  --      1.4632                 1.1169                 1.2615
 IR Inten    --     30.2216                 5.9847                 7.9607

                     49                     50                     51
                      A                      A                      A
 Frequencies --   1093.5114              1110.5376              1130.9027
 Red. masses --      1.5294                 1.5322                 1.7596
 Frc consts  --      1.0775                 1.1133                 1.3259
 IR Inten    --     27.7365                 1.1874                 9.0469

                     52                     53                     54
                      A                      A                      A
 Frequencies --   1133.5730              1160.6068              1164.9314
 Red. masses --      1.3146                 2.1604                 1.6159
 Frc consts  --      0.9953                 1.7146                 1.2920
 IR Inten    --     12.5423                60.6249                36.7046

                     55                     56                     57
                      A                      A                      A
 Frequencies --   1176.1557              1183.8903              1190.4136
 Red. masses --      1.4247                 2.4331                 2.6306
 Frc consts  --      1.1612                 2.0092                 2.1963
 IR Inten    --     35.2507                 9.4893                74.1399

                     58                     59                     60
                      A                      A                      A
 Frequencies --   1201.8650              1213.8638              1226.2456
 Red. masses --      2.0157                 1.6596                 1.4987
 Frc consts  --      1.7155                 1.4407                 1.3278
 IR Inten    --     18.3426                18.5665                14.8134

                     61                     62                     63
                      A                      A                      A
 Frequencies --   1233.7393              1243.7434              1260.0447
 Red. masses --      3.1858                 1.5628                 1.2920
 Frc consts  --      2.8571                 1.4243                 1.2086
 IR Inten    --     13.6279                62.2306                67.8633

                     64                     65                     66
                      A                      A                      A
 Frequencies --   1263.5682              1269.9577              1272.8755
 Red. masses --      1.5558                 1.2803                 1.4327
 Frc consts  --      1.4635                 1.2166                 1.3677
 IR Inten    --    120.6990                47.7282                67.3885

                     67                     68                     69
                      A                      A                      A
 Frequencies --   1274.5525              1276.6869              1280.3720
 Red. masses --      1.1766                 1.1338                 1.0707
 Frc consts  --      1.1262                 1.0889                 1.0342
 IR Inten    --     55.5591               109.9884                61.4283

                     70                     71                     72
                      A                      A                      A
 Frequencies --   1283.6197              1286.1238              1290.3571
 Red. masses --      1.0683                 1.0860                 1.2099
 Frc consts  --      1.0371                 1.0584                 1.1869
 IR Inten    --     26.9652                33.0279                 5.3740

                     73                     74                     75
                      A                      A                      A
 Frequencies --   1292.3268              1300.0946              1304.4725
 Red. masses --      1.0933                 1.1271                 1.0787
 Frc consts  --      1.0758                 1.1224                 1.0815
 IR Inten    --     38.7034                45.4032                23.7211

                     76                     77                     78
                      A                      A                      A
 Frequencies --   1307.1084              1315.0220              1316.2716
 Red. masses --      1.4853                 1.1622                 1.1265
 Frc consts  --      1.4952                 1.1842                 1.1499
 IR Inten    --     11.4192                22.5329                63.8162

                     79                     80                     81
                      A                      A                      A
 Frequencies --   1349.4520              1354.8765              1362.3562
 Red. masses --      1.3927                 1.1140                 1.4596
 Frc consts  --      1.4943                 1.2049                 1.5961
 IR Inten    --     14.7562                53.5296                76.7593

                     82                     83                     84
                      A                      A                      A
 Frequencies --   1369.1829              1376.1292              1393.0884
 Red. masses --      1.2769                 1.3151                 1.1594
 Frc consts  --      1.4104                 1.4673                 1.3256
 IR Inten    --    154.4145                51.5107                88.5504

                     85                     86                     87
                      A                      A                      A
 Frequencies --   1404.7877              1408.6964              1413.3940
 Red. masses --      1.3118                 1.1914                 1.2781
 Frc consts  --      1.5252                 1.3930                 1.5044
 IR Inten    --      8.4444                36.2333                33.1621

                     88                     89                     90
                      A                      A                      A
 Frequencies --   1492.9939              1590.3008              2085.2622
 Red. masses --      6.2071                 5.1928                 1.1166
 Frc consts  --      8.1518                 7.7376                 2.8606
 IR Inten    --     14.7440                27.8648                42.3534

                     91                     92                     93
                      A                      A                      A
 Frequencies --   2606.1268              2625.3098              2641.5133
 Red. masses --      1.0777                 1.0764                 1.0786
 Frc consts  --      4.3125                 4.3711                 4.4341
 IR Inten    --     91.9059                31.8581                44.5480

                     94                     95                     96
                      A                      A                      A
 Frequencies --   2652.9021              2653.9294              2657.7865
 Red. masses --      1.0836                 1.0847                 1.0867
 Frc consts  --      4.4934                 4.5015                 4.5229
 IR Inten    --    101.4865                26.7973               169.2388

                     97                     98                     99
                      A                      A                      A
 Frequencies --   2662.7085              2663.8718              2665.7020
 Red. masses --      1.0854                 1.0817                 1.0856
 Frc consts  --      4.5341                 4.5227                 4.5449
 IR Inten    --     10.4280                33.0755                47.2321

                    100                    101                    102
                      A                      A                      A
 Frequencies --   2667.3608              2672.1794              2675.8635
 Red. masses --      1.0857                 1.0868                 1.0874
 Frc consts  --      4.5510                 4.5723                 4.5875
 IR Inten    --     97.8751                65.2560                78.5223

                    103                    104                    105
                      A                      A                      A
 Frequencies --   2691.4514              2693.6073              2703.4101
 Red. masses --      1.0847                 1.0702                 1.0515
 Frc consts  --      4.6297                 4.5747                 4.5276
 IR Inten    --     59.1376               120.1553               201.5917

                    106                    107                    108
                      A                      A                      A
 Frequencies --   2726.4370              2728.0533              2737.0687
 Red. masses --      1.0526                 1.0561                 1.0599
 Frc consts  --      4.6100                 4.6308                 4.6781
 IR Inten    --    113.9026               140.2271                62.0377

                    109                    110                    111
                      A                      A                      A
 Frequencies --   2740.1360              2772.3096              2774.8923
 Red. masses --      1.0483                 1.0373                 1.0337
 Frc consts  --      4.6376                 4.6971                 4.6894
 IR Inten    --    103.4283                70.6175                93.6067

                    112                    113                    114
                      A                      A                      A
 Frequencies --   2775.9450              2778.0743              2781.1425
 Red. masses --      1.0391                 1.0304                 1.0301
 Frc consts  --      4.7175                 4.6853                 4.6943
 IR Inten    --     68.6648                26.8285                30.7865

 - Thermochemistry -
 -------------------
 Temperature   298.150 Kelvin.  Pressure   1.00000 Atm.
 Atom     1 has atomic number  6 and mass  12.00000

 Molecular mass:   205.19563 amu.
 Principal axes and moments of inertia in atomic units:
                           1         2         3
     Eigenvalues --  2341.597853145.642864462.68737
           X            0.99985  -0.01732  -0.00139
           Y            0.01732   0.99984   0.00379
           Z            0.00132  -0.00382   0.99999
 This molecule is an asymmetric top.
 Rotational symmetry number  1.
 Warning -- assumption of classical behavior for rotation
           may cause significant error
 Rotational temperatures (Kelvin)      0.03699     0.02753     0.01941
 Rotational constants (GHZ):           0.77073     0.57373     0.40441
    1 imaginary frequencies ignored.
 Zero-point vibrational energy     884734.5 (Joules/Mol)
                                  211.45662 (Kcal/Mol)
 Warning -- explicit consideration of  24 degrees of freedom as
           vibrations may cause significant error
 Vibrational temperatures:     55.81    98.01   153.00   171.73   207.46
          (Kelvin)            246.13   291.03   299.82   312.97   337.01
                              347.57   394.35   396.45   418.42   473.47
                              520.35   562.50   586.47   639.16   651.01
                              705.13   729.09   783.12   837.75   919.85
                             1017.53  1082.18  1173.66  1212.11  1238.15
                             1249.11  1300.88  1328.10  1333.35  1361.72
                             1370.47  1389.63  1404.96  1411.66  1420.82
                             1446.18  1464.34  1484.35  1517.43  1544.52
                             1561.19  1569.99  1573.32  1597.82  1627.12
                             1630.96  1669.85  1676.08  1692.23  1703.35
                             1712.74  1729.22  1746.48  1764.29  1775.08
                             1789.47  1812.92  1817.99  1827.19  1831.38
                             1833.80  1836.87  1842.17  1846.84  1850.45
                             1856.54  1859.37  1870.55  1876.85  1880.64
                             1892.02  1893.82  1941.56  1949.37  1960.13
                             1969.95  1979.94  2004.34  2021.18  2026.80
                             2033.56  2148.09  2288.09  3000.23  3749.64
                             3777.24  3800.55  3816.93  3818.41  3823.96
                             3831.04  3832.72  3835.35  3837.74  3844.67
                             3849.97  3872.40  3875.50  3889.60  3922.73
                             3925.06  3938.03  3942.44  3988.74  3992.45
                             3993.97  3997.03  4001.44

 Zero-point correction=                           0.336978 (Hartree/Particle)
 Thermal correction to Energy=                    0.352584
 Thermal correction to Enthalpy=                  0.353529
 Thermal correction to Gibbs Free Energy=         0.295547
 Sum of electronic and zero-point Energies=              0.612476
 Sum of electronic and thermal Energies=                 0.628083
 Sum of electronic and thermal Enthalpies=               0.629027
 Sum of electronic and thermal Free Energies=            0.571045

                     E (Thermal)             CV                S
                      KCal/Mol        Cal/Mol-Kelvin    Cal/Mol-Kelvin
 Total                  221.250             63.090            122.033
 Electronic               0.000              0.000              0.000
 Translational            0.889              2.981             41.861
 Rotational               0.889              2.981             31.864
 Vibrational            219.473             57.128             48.308
 Vibration     1          0.594              1.981              5.320
 Vibration     2          0.598              1.969              4.207
 Vibration     3          0.605              1.944              3.335
 Vibration     4          0.609              1.933              3.111
 Vibration     5          0.616              1.909              2.748
 Vibration     6          0.626              1.878              2.424
 Vibration     7          0.639              1.837              2.112
 Vibration     8          0.642              1.828              2.058
 Vibration     9          0.646              1.814              1.980
 Vibration    10          0.654              1.788              1.846
 Vibration    11          0.658              1.777              1.791
 Vibration    12          0.676              1.721              1.570
 Vibration    13          0.677              1.719              1.561
 Vibration    14          0.687              1.691              1.469
 Vibration    15          0.712              1.617              1.265
 Vibration    16          0.736              1.551              1.115
 Vibration    17          0.759              1.489              0.996
 Vibration    18          0.772              1.454              0.935
 Vibration    19          0.804              1.374              0.813
 Vibration    20          0.811              1.355              0.788
 Vibration    21          0.846              1.272              0.683
 Vibration    22          0.862              1.235              0.641
 Vibration    23          0.899              1.152              0.556
 Vibration    24          0.939              1.070              0.481

                           ! Non-Optimized Parameters !
 Normal termination of Gaussian 16 at Thu Mar 27 17:16:47 2025.
