 Gaussian 16, Revision C.02,
 Gaussian 16:  AS64L-G16RevC.02  7-Dec-2021

 -------------------------------------------------------------
 #p PM7 opt=readfc geom=check guess=read freq=noraman pop=none
 -------------------------------------------------------------

 -----
 title
 -----
 Structure from the checkpoint file:  "IM5_tsopt_Fopt.chk"
 Charge =  1 Multiplicity = 1

 SCF Done:  E(RPM7) =  0.246375827462     A.U. after    2 cycles
 SCF Done:  E(RPM7) =  0.255935280617     A.U. after   13 cycles
 SCF Done:  E(RPM7) =  0.248132391898     A.U. after   13 cycles
 SCF Done:  E(RPM7) =  0.246171775932     A.U. after    8 cycles
 SCF Done:  E(RPM7) =  0.247136644495     A.U. after   13 cycles
 SCF Done:  E(RPM7) =  0.245634611111     A.U. after   11 cycles
 SCF Done:  E(RPM7) =  0.244921796485     A.U. after   13 cycles
 SCF Done:  E(RPM7) =  0.244235315983     A.U. after   13 cycles
 SCF Done:  E(RPM7) =  0.243712212117     A.U. after   13 cycles
 SCF Done:  E(RPM7) =  0.242926574390     A.U. after   13 cycles
 SCF Done:  E(RPM7) =  0.238157436777     A.U. after   11 cycles
 SCF Done:  E(RPM7) =  0.237631907035     A.U. after   12 cycles
 SCF Done:  E(RPM7) =  0.237361794620     A.U. after   11 cycles
 SCF Done:  E(RPM7) =  0.237244057143     A.U. after   11 cycles
 SCF Done:  E(RPM7) =  0.237211373385     A.U. after   11 cycles
 SCF Done:  E(RPM7) =  0.237207976537     A.U. after   11 cycles
 SCF Done:  E(RPM7) =  0.237210994758     A.U. after   11 cycles
 SCF Done:  E(RPM7) =  0.237202102709     A.U. after   10 cycles
 SCF Done:  E(RPM7) =  0.237201577065     A.U. after    9 cycles
 Optimization completed.
    -- Stationary point found.
 Normal termination of Gaussian 16 at Thu Mar 27 17:21:51 2025.

 -------------------------------------------------------------
 #P Geom=AllCheck Guess=TCheck SCRF=Check GenChk RPM7/ZDO Freq
 -------------------------------------------------------------

 Structure from the checkpoint file:  "IM5_tsopt_Fopt.chk"
 -----
 title
 -----
 Charge =  1 Multiplicity = 1

                         Standard orientation:
 ---------------------------------------------------------------------
 Center     Atomic      Atomic             Coordinates (Angstroms)
 Number     Number       Type             X           Y           Z
 ---------------------------------------------------------------------
      1          6           0       -0.436785   -1.415191    0.078198
      2          6           0        1.088529   -1.558375    0.289804
      3          6           0        1.890655   -0.853359   -0.827479
      4          6           0       -0.923459   -0.156785   -0.677954
      5          6           0        2.090605    0.623490   -0.643824
      6          6           0       -0.389099    1.038550    0.019797
      7          6           0        0.890494    1.601471   -0.181827
      8          1           0       -0.809505   -2.294915   -0.496057
      9          1           0        1.430136   -1.085164   -1.810549
     10          1           0       -0.949033   -1.481002    1.059889
     11          1           0        2.900825   -1.331332   -0.890500
     12          1           0        3.035807    0.866095   -0.123088
     13          1           0       -0.606228   -0.237590   -1.744392
     14          6           0       -1.389671    1.598794    0.947882
     15          1           0       -1.546945    2.693078    0.777053
     16          1           0       -1.052527    1.560337    2.011912
     17          6           0       -2.688274    0.801436    0.728034
     18          1           0       -2.886793    0.116466    1.573171
     19          1           0       -3.574678    1.458485    0.666778
     20          6           0       -2.472330    0.021173   -0.588759
     21          1           0       -2.790421    0.661930   -1.450641
     22          6           0       -3.265857   -1.271249   -0.641198
     23          1           0       -4.348310   -1.066645   -0.674203
     24          1           0       -3.031495   -1.858763   -1.539481
     25          1           0       -3.098893   -1.917330    0.229211
     26          6           0        1.528767    1.591041   -1.601311
     27          1           0        2.086224    2.493521   -1.885787
     28          1           0        0.927365    1.260102   -2.451047
     29          6           0        1.490556   -1.034971    1.673809
     30          1           0        1.181059   -0.004940    1.853591
     31          1           0        1.053354   -1.649216    2.474674
     32          1           0        2.579831   -1.080116    1.815028
     33          6           0        1.426119   -3.059740    0.232527
     34          1           0        1.245543   -3.487876   -0.760484
     35          1           0        2.479461   -3.247512    0.480770
     36          1           0        0.829338   -3.636066    0.951655
     37          6           0        1.283907    2.749204    0.706208
     38          1           0        0.645737    3.633771    0.548752
     39          1           0        1.238344    2.489633    1.774833
     40          1           0        2.316862    3.092110    0.525473
 ---------------------------------------------------------------------

 SCF Done:  E(RPM7) =  0.237201577069     A.U. after    2 cycles

 Isotropic polarizability for W=    0.000000      105.50 Bohr**3.
 End of Minotr F.D. properties file   721 does not exist.

                      1                      2                      3
                      A                      A                      A
 Frequencies --     62.4802               100.2686               111.8118
 Red. masses --      2.7286                 2.6742                 2.7038
 Frc consts  --      0.0063                 0.0158                 0.0199
 IR Inten    --      1.3514                 0.3667                 0.2814

                      4                      5                      6
                      A                      A                      A
 Frequencies --    124.7496               145.7600               174.1858
 Red. masses --      1.8458                 1.0874                 2.4282
 Frc consts  --      0.0169                 0.0136                 0.0434
 IR Inten    --      2.2840                 0.0722                 5.0921

                      7                      8                      9
                      A                      A                      A
 Frequencies --    178.1129               184.6984               203.0131
 Red. masses --      1.4646                 1.1186                 1.4183
 Frc consts  --      0.0274                 0.0225                 0.0344
 IR Inten    --      0.1662                 0.2887                 0.3832

                     10                     11                     12
                      A                      A                      A
 Frequencies --    217.6636               232.1986               250.1625
 Red. masses --      1.2211                 2.0686                 2.8372
 Frc consts  --      0.0341                 0.0657                 0.1046
 IR Inten    --      0.1204                 1.8680                 0.2810

                     13                     14                     15
                      A                      A                      A
 Frequencies --    295.7402               317.9392               322.1175
 Red. masses --      3.2314                 3.1865                 2.8985
 Frc consts  --      0.1665                 0.1898                 0.1772
 IR Inten    --      2.6034                 3.5209                 0.6192

                     16                     17                     18
                      A                      A                      A
 Frequencies --    368.8919               379.1554               403.4897
 Red. masses --      2.9187                 2.8428                 2.8846
 Frc consts  --      0.2340                 0.2408                 0.2767
 IR Inten    --      0.8598                11.1688                 1.0065

                     19                     20                     21
                      A                      A                      A
 Frequencies --    427.0026               456.3695               470.0996
 Red. masses --      2.5458                 2.7993                 2.4777
 Frc consts  --      0.2735                 0.3435                 0.3226
 IR Inten    --      4.0266                 2.6982                 4.2125

                     22                     23                     24
                      A                      A                      A
 Frequencies --    488.6000               537.6753               543.3385
 Red. masses --      2.8895                 3.8525                 3.7059
 Frc consts  --      0.4064                 0.6562                 0.6446
 IR Inten    --      7.8380                49.9205                51.8349

                     25                     26                     27
                      A                      A                      A
 Frequencies --    595.4929               602.3462               618.0342
 Red. masses --      2.8986                 2.7483                 2.6316
 Frc consts  --      0.6056                 0.5875                 0.5922
 IR Inten    --      6.7402                23.9113                 6.7485

                     28                     29                     30
                      A                      A                      A
 Frequencies --    763.2096               837.5472               842.3747
 Red. masses --      4.5460                 1.8092                 1.4780
 Frc consts  --      1.5602                 0.7477                 0.6179
 IR Inten    --     70.9683                43.5192                18.4998

                     31                     32                     33
                      A                      A                      A
 Frequencies --    853.6766               903.4133               916.7901
 Red. masses --      2.4789                 2.2008                 1.9556
 Frc consts  --      1.0644                 1.0583                 0.9685
 IR Inten    --     87.6818                 7.0633                30.9644

                     34                     35                     36
                      A                      A                      A
 Frequencies --    922.3223               938.3813               953.4505
 Red. masses --      2.1500                 2.1714                 1.8453
 Frc consts  --      1.0776                 1.1266                 0.9883
 IR Inten    --      5.3365                63.1760                 5.2715

                     37                     38                     39
                      A                      A                      A
 Frequencies --    959.6596               976.4195               981.3431
 Red. masses --      1.7803                 1.4657                 1.5631
 Frc consts  --      0.9660                 0.8233                 0.8869
 IR Inten    --     16.1046                 0.0974                 8.9846

                     40                     41                     42
                      A                      A                      A
 Frequencies --    989.4792              1010.0141              1022.7425
 Red. masses --      1.5641                 1.6173                 1.3408
 Frc consts  --      0.9023                 0.9721                 0.8263
 IR Inten    --     12.4348                 2.3478                 4.5753

                     43                     44                     45
                      A                      A                      A
 Frequencies --   1030.4145              1045.8528              1067.6241
 Red. masses --      1.2819                 2.6858                 1.2980
 Frc consts  --      0.8019                 1.7309                 0.8717
 IR Inten    --      3.2358                 5.8164                 2.5241

                     46                     47                     48
                      A                      A                      A
 Frequencies --   1075.1135              1085.8825              1106.5310
 Red. masses --      1.3089                 2.3777                 1.6999
 Frc consts  --      0.8914                 1.6519                 1.2263
 IR Inten    --      7.0711                31.2137                37.5136

                     49                     50                     51
                      A                      A                      A
 Frequencies --   1117.0867              1122.1782              1138.2938
 Red. masses --      1.8510                 1.5419                 1.7578
 Frc consts  --      1.3609                 1.1440                 1.3419
 IR Inten    --      8.8451                 6.9039                60.8599

                     52                     53                     54
                      A                      A                      A
 Frequencies --   1148.1164              1162.5144              1170.3571
 Red. masses --      1.9265                 2.0075                 1.4827
 Frc consts  --      1.4962                 1.5985                 1.1966
 IR Inten    --    140.9471                56.7083                46.1896

                     55                     56                     57
                      A                      A                      A
 Frequencies --   1183.5384              1189.9028              1201.1641
 Red. masses --      1.4947                 1.7686                 1.7769
 Frc consts  --      1.2336                 1.4754                 1.5105
 IR Inten    --     53.2216                14.6409                27.5511

                     58                     59                     60
                      A                      A                      A
 Frequencies --   1205.4580              1216.5544              1221.3393
 Red. masses --      2.1876                 1.7251                 2.5290
 Frc consts  --      1.8729                 1.5043                 2.2227
 IR Inten    --     40.2139                 7.1586                20.9012

                     61                     62                     63
                      A                      A                      A
 Frequencies --   1236.0941              1251.1718              1257.3653
 Red. masses --      1.2793                 1.2883                 1.5021
 Frc consts  --      1.1517                 1.1882                 1.3992
 IR Inten    --     47.4488                 2.2673               195.0378

                     64                     65                     66
                      A                      A                      A
 Frequencies --   1273.4795              1273.7700              1280.5266
 Red. masses --      1.1597                 1.0547                 1.2327
 Frc consts  --      1.1081                 1.0082                 1.1910
 IR Inten    --     16.9884                67.3493                30.6869

                     67                     68                     69
                      A                      A                      A
 Frequencies --   1282.9363              1283.1944              1285.9714
 Red. masses --      1.1415                 1.1359                 1.3700
 Frc consts  --      1.1070                 1.1020                 1.3349
 IR Inten    --    139.7379                36.5667                 7.0026

                     70                     71                     72
                      A                      A                      A
 Frequencies --   1289.9232              1290.4295              1296.8660
 Red. masses --      1.1135                 1.2037                 1.2519
 Frc consts  --      1.0916                 1.1810                 1.2405
 IR Inten    --     14.8694                11.7238                10.7324

                     73                     74                     75
                      A                      A                      A
 Frequencies --   1298.3898              1304.5671              1307.4444
 Red. masses --      1.0879                 1.2122                 1.2060
 Frc consts  --      1.0806                 1.2155                 1.2146
 IR Inten    --     50.4935                26.0080                45.5598

                     76                     77                     78
                      A                      A                      A
 Frequencies --   1310.9574              1318.5585              1323.4398
 Red. masses --      1.1628                 1.1065                 1.2709
 Frc consts  --      1.1774                 1.1334                 1.3115
 IR Inten    --     41.6815                38.9268                37.9806

                     79                     80                     81
                      A                      A                      A
 Frequencies --   1326.9277              1350.2768              1357.7355
 Red. masses --      1.2488                 1.1261                 1.4568
 Frc consts  --      1.2955                 1.2097                 1.5822
 IR Inten    --     29.4951                53.1580                63.0729

                     82                     83                     84
                      A                      A                      A
 Frequencies --   1367.7715              1384.1826              1396.8282
 Red. masses --      1.2537                 1.2379                 1.1964
 Frc consts  --      1.3819                 1.3974                 1.3754
 IR Inten    --    138.7486               108.7743                58.1012

                     85                     86                     87
                      A                      A                      A
 Frequencies --   1401.8051              1411.4551              1421.3084
 Red. masses --      1.1926                 1.2109                 1.2437
 Frc consts  --      1.3808                 1.4213                 1.4803
 IR Inten    --     44.7298                36.4477                 4.0979

                     88                     89                     90
                      A                      A                      A
 Frequencies --   1438.0244              1552.9844              2599.4440
 Red. masses --      3.6846                 5.9161                 1.0750
 Frc consts  --      4.4892                 8.4067                 4.2798
 IR Inten    --     33.2239               505.8203                83.7271

                     91                     92                     93
                      A                      A                      A
 Frequencies --   2633.1257              2634.8685              2648.7489
 Red. masses --      1.0786                 1.0798                 1.0846
 Frc consts  --      4.4059                 4.4169                 4.4831
 IR Inten    --     49.5024                43.0988                59.0200

                     94                     95                     96
                      A                      A                      A
 Frequencies --   2656.1151              2658.1882              2659.8958
 Red. masses --      1.0809                 1.0831                 1.0846
 Frc consts  --      4.4927                 4.5092                 4.5210
 IR Inten    --     17.1640               153.2586                25.5670

                     97                     98                     99
                      A                      A                      A
 Frequencies --   2661.6512              2667.0987              2667.7205
 Red. masses --      1.0852                 1.0862                 1.0840
 Frc consts  --      4.5298                 4.5523                 4.5451
 IR Inten    --     11.2336                79.1427                51.8964

                    100                    101                    102
                      A                      A                      A
 Frequencies --   2670.2911              2670.5405              2679.7519
 Red. masses --      1.0851                 1.0866                 1.0866
 Frc consts  --      4.5589                 4.5658                 4.5973
 IR Inten    --     85.4919                63.7917                56.1032

                    103                    104                    105
                      A                      A                      A
 Frequencies --   2684.3253              2696.8914              2702.9844
 Red. masses --      1.0665                 1.0688                 1.0528
 Frc consts  --      4.5277                 4.5799                 4.5320
 IR Inten    --     67.2545               191.7669               176.9936

                    106                    107                    108
                      A                      A                      A
 Frequencies --   2709.8897              2723.3485              2725.9398
 Red. masses --      1.0664                 1.0504                 1.0510
 Frc consts  --      4.6138                 4.5898                 4.6013
 IR Inten    --    236.5637                61.4542                64.0585

                    109                    110                    111
                      A                      A                      A
 Frequencies --   2742.3787              2752.0711              2771.1590
 Red. masses --      1.0489                 1.0491                 1.0316
 Frc consts  --      4.6476                 4.6817                 4.6676
 IR Inten    --     95.1516               143.3200                66.8091

                    112                    113                    114
                      A                      A                      A
 Frequencies --   2777.3125              2778.0431              2782.2079
 Red. masses --      1.0303                 1.0304                 1.0301
 Frc consts  --      4.6825                 4.6854                 4.6977
 IR Inten    --     19.6523                52.1409                30.5993

 - Thermochemistry -
 -------------------
 Temperature   298.150 Kelvin.  Pressure   1.00000 Atm.
 Atom     1 has atomic number  6 and mass  12.00000

 Molecular mass:   205.19563 amu.
 Principal axes and moments of inertia in atomic units:
                           1         2         3
     Eigenvalues --  2465.396232974.662164249.87078
           X            0.99981   0.01833   0.00732
           Y           -0.01840   0.99979   0.00940
           Z           -0.00715  -0.00954   0.99993
 This molecule is an asymmetric top.
 Rotational symmetry number  1.
 Warning -- assumption of classical behavior for rotation
           may cause significant error
 Rotational temperatures (Kelvin)      0.03513     0.02912     0.02038
 Rotational constants (GHZ):           0.73203     0.60670     0.42466
 Zero-point vibrational energy     891807.2 (Joules/Mol)
                                  213.14703 (Kcal/Mol)
 Warning -- explicit consideration of  27 degrees of freedom as
           vibrations may cause significant error
 Vibrational temperatures:     89.90   144.26   160.87   179.49   209.72
          (Kelvin)            250.61   256.26   265.74   292.09   313.17
                              334.08   359.93   425.50   457.44   463.46
                              530.75   545.52   580.53   614.36   656.61
                              676.37   702.99   773.59   781.74   856.78
                              866.64   889.21  1098.09  1205.04  1211.99
                             1228.25  1299.81  1319.06  1327.02  1350.12
                             1371.80  1380.74  1404.85  1411.93  1423.64
                             1453.19  1471.50  1482.54  1504.75  1536.07
                             1546.85  1562.34  1592.05  1607.24  1614.56
                             1637.75  1651.88  1672.60  1683.88  1702.85
                             1712.00  1728.21  1734.39  1750.35  1757.23
                             1778.46  1800.16  1809.07  1832.25  1832.67
                             1842.39  1845.86  1846.23  1850.23  1855.91
                             1856.64  1865.90  1868.09  1876.98  1881.12
                             1886.18  1897.11  1904.13  1909.15  1942.75
                             1953.48  1967.92  1991.53  2009.72  2016.88
                             2030.77  2044.95  2069.00  2234.40  3740.02
                             3788.48  3790.99  3810.96  3821.56  3824.54
                             3827.00  3829.52  3837.36  3838.25  3841.95
                             3842.31  3855.57  3862.15  3880.23  3888.99
                             3898.93  3918.29  3922.02  3945.67  3959.62
                             3987.08  3995.93  3996.98  4002.98

 Zero-point correction=                           0.339671 (Hartree/Particle)
 Thermal correction to Energy=                    0.355506
 Thermal correction to Enthalpy=                  0.356451
 Thermal correction to Gibbs Free Energy=         0.298708
 Sum of electronic and zero-point Energies=              0.576873
 Sum of electronic and thermal Energies=                 0.592708
 Sum of electronic and thermal Enthalpies=               0.593652
 Sum of electronic and thermal Free Energies=            0.535910

                     E (Thermal)             CV                S
                      KCal/Mol        Cal/Mol-Kelvin    Cal/Mol-Kelvin
 Total                  223.084             64.308            121.529
 Electronic               0.000              0.000              0.000
 Translational            0.889              2.981             41.861
 Rotational               0.889              2.981             31.811
 Vibrational            221.306             58.346             47.857
 Vibration     1          0.597              1.972              4.377
 Vibration     2          0.604              1.949              3.449
 Vibration     3          0.607              1.940              3.237
 Vibration     4          0.610              1.928              3.025
 Vibration     5          0.617              1.907              2.727
 Vibration     6          0.627              1.874              2.390
 Vibration     7          0.629              1.869              2.348
 Vibration     8          0.631              1.861              2.280
 Vibration     9          0.639              1.836              2.106
 Vibration    10          0.646              1.814              1.978
 Vibration    11          0.653              1.792              1.862
 Vibration    12          0.663              1.762              1.729
 Vibration    13          0.690              1.682              1.441
 Vibration    14          0.704              1.639              1.321
 Vibration    15          0.707              1.631              1.299
 Vibration    16          0.741              1.536              1.084
 Vibration    17          0.749              1.515              1.043
 Vibration    18          0.769              1.463              0.950
 Vibration    19          0.789              1.411              0.869
 Vibration    20          0.815              1.347              0.777
 Vibration    21          0.827              1.316              0.737
 Vibration    22          0.844              1.275              0.687
 Vibration    23          0.893              1.167              0.570
 Vibration    24          0.898              1.154              0.558
 Vibration    25          0.953              1.041              0.457
 Vibration    26          0.961              1.027              0.446
 Vibration    27          0.978              0.994              0.420

                           ! Non-Optimized Parameters !
 Normal termination of Gaussian 16 at Thu Mar 27 17:21:52 2025.
