 Gaussian 16, Revision C.02,
 Gaussian 16:  AS64L-G16RevC.02  7-Dec-2021

 ----------------------------------------------------------------------
 #p PM7 irc=(lqa,reverse,rcfc,noeig,maxcyc=30,maxpoints=30,stepsize=15)
  geom=check guess=read IOp(2/15=3) IOp(2/12=3)
 ----------------------------------------------------------------------

 -----
 title
 -----
 Structure from the checkpoint file:  "IM5_tsopt_R.chk"
 Charge =  1 Multiplicity = 1

 SCF Done:  E(RPM7) =  0.274907775997     A.U. after   12 cycles
 SCF Done:  E(RPM7) =  0.273226884967     A.U. after   12 cycles
 SCF Done:  E(RPM7) =  0.270705584261     A.U. after   12 cycles
 SCF Done:  E(RPM7) =  0.267699416258     A.U. after   12 cycles
 SCF Done:  E(RPM7) =  0.264591860630     A.U. after   12 cycles
 SCF Done:  E(RPM7) =  0.261717113956     A.U. after   12 cycles
 SCF Done:  E(RPM7) =  0.259294934108     A.U. after   12 cycles
 SCF Done:  E(RPM7) =  0.257389542431     A.U. after   12 cycles
 SCF Done:  E(RPM7) =  0.255923851233     A.U. after   12 cycles
 SCF Done:  E(RPM7) =  0.254769052737     A.U. after   12 cycles
 SCF Done:  E(RPM7) =  0.249603409394     A.U. after   11 cycles
 SCF Done:  E(RPM7) =  0.249445951883     A.U. after   11 cycles
 SCF Done:  E(RPM7) =  0.249305640568     A.U. after   11 cycles
 SCF Done:  E(RPM7) =  0.249173787187     A.U. after   10 cycles
 SCF Done:  E(RPM7) =  0.249051163144     A.U. after   11 cycles
 SCF Done:  E(RPM7) =  0.248934658303     A.U. after   11 cycles
 SCF Done:  E(RPM7) =  0.248822903922     A.U. after   11 cycles
 SCF Done:  E(RPM7) =  0.248714807897     A.U. after   11 cycles
 SCF Done:  E(RPM7) =  0.248609647520     A.U. after   11 cycles
 SCF Done:  E(RPM7) =  0.248507536247     A.U. after   11 cycles

                          Input orientation:
 ---------------------------------------------------------------------
 Center     Atomic      Atomic             Coordinates (Angstroms)
 Number     Number       Type             X           Y           Z
 ---------------------------------------------------------------------
      1          6           0       -0.419109   -1.568836    0.204251
      2          6           0       -1.851848   -0.992593   -0.006078
      3          6           0       -2.079171    0.276890    0.838130
      4          6           0        0.748038   -0.721172    0.285641
      5          6           0       -1.594524    1.503327    0.116111
      6          6           0        0.867250    0.727764    0.518864
      7          6           0       -0.100477    1.688907   -0.137843
      8          1           0       -0.445841   -2.212156    1.138012
      9          1           0       -1.624042    0.170079    1.838582
     10          1           0       -0.270036   -2.366068   -0.584080
     11          1           0       -3.168735    0.393671    1.049982
     12          1           0       -2.282884    1.801120   -0.693731
     13          1           0        0.695074    0.824320    1.655076
     14          6           0        2.359568    1.063781    0.278004
     15          1           0        2.690393    1.911149    0.904868
     16          1           0        2.543310    1.384452   -0.764594
     17          6           0        3.112377   -0.233956    0.590694
     18          1           0        4.025059   -0.333530   -0.027426
     19          1           0        3.472728   -0.252561    1.636644
     20          6           0        2.102332   -1.371750    0.326968
     21          1           0        2.150910   -2.123436    1.163488
     22          6           0        2.395059   -2.104117   -0.981880
     23          1           0        3.421124   -2.514911   -0.973848
     24          1           0        1.728088   -2.958068   -1.154714
     25          1           0        2.337890   -1.441132   -1.856424
     26          6           0       -0.855315    2.615025    0.810903
     27          1           0       -1.039761    3.649252    0.512682
     28          1           0       -0.674939    2.584048    1.881447
     29          6           0       -2.067125   -0.743190   -1.501138
     30          1           0       -1.307093   -0.083230   -1.932494
     31          1           0       -2.062421   -1.675519   -2.080133
     32          1           0       -3.044380   -0.272040   -1.686654
     33          6           0       -2.843064   -2.072022    0.459396
     34          1           0       -2.789078   -2.256557    1.538135
     35          1           0       -3.880282   -1.771426    0.244260
     36          1           0       -2.692505   -3.028287   -0.055386
     37          6           0        0.308452    2.220642   -1.482751
     38          1           0        1.142693    2.935321   -1.406454
     39          1           0        0.604110    1.425259   -2.176815
     40          1           0       -0.511006    2.772747   -1.971926
 ---------------------------------------------------------------------

 Alpha  occ. eigenvalues --   -1.33456  -1.26717  -1.23052  -1.13290  -1.11892
 Alpha  occ. eigenvalues --   -1.06858  -1.01451  -1.00730  -0.99656  -0.97344
 Alpha  occ. eigenvalues --   -0.89865  -0.86541  -0.84709  -0.81719  -0.79658
 Alpha  occ. eigenvalues --   -0.76879  -0.74209  -0.73048  -0.72616  -0.70209
 Alpha  occ. eigenvalues --   -0.68724  -0.68434  -0.66905  -0.65744  -0.64769
 Alpha  occ. eigenvalues --   -0.63824  -0.63248  -0.62327  -0.61883  -0.61054
 Alpha  occ. eigenvalues --   -0.60345  -0.59975  -0.59722  -0.58896  -0.58694
 Alpha  occ. eigenvalues --   -0.58047  -0.56929  -0.56403  -0.56131  -0.54937
 Alpha  occ. eigenvalues --   -0.52620  -0.50918
 Alpha virt. eigenvalues --   -0.21310  -0.06250  -0.05812  -0.04673  -0.03289
 Alpha virt. eigenvalues --   -0.01936  -0.01439  -0.01125  -0.00961  -0.00215
 Alpha virt. eigenvalues --    0.00556   0.01184   0.01552   0.02184   0.02710

 Mulliken charges:
               1
     1  C   -0.452490
     2  C    0.139085
     3  C   -0.310660
     4  C    0.479293
     5  C   -0.154614
     6  C   -0.216340
     7  C   -0.019948
     8  H    0.236919
     9  H    0.141112
    10  H    0.232303
    11  H    0.183120
    12  H    0.180201
    13  H    0.228378
    14  C   -0.267245
    15  H    0.177222
    16  H    0.173279
    17  C   -0.280670
    18  H    0.181199
    19  H    0.166101
    20  C   -0.214610
    21  H    0.198619
    22  C   -0.431393
    23  H    0.191979
    24  H    0.160521
    25  H    0.168634
    26  C   -0.325636
    27  H    0.186767
    28  H    0.164591
    29  C   -0.474937
    30  H    0.151414
    31  H    0.160559
    32  H    0.176339
    33  C   -0.476925
    34  H    0.155723
    35  H    0.177376
    36  H    0.159881
    37  C   -0.441358
    38  H    0.170445
    39  H    0.149570
    40  H    0.176196
 Sum of Mulliken charges =   1.00000

 Dipole moment (field-independent basis, Debye):
    X=              2.6462    Y=             -3.1752    Z=              1.1005  Tot=              4.2773
 N-N= 6.293405577617D+02 E-N=-1.066841186477D+03  KE=-1.266543457664D+02
  Exact polarizability:       0.000       0.000       0.000       0.000       0.000       0.000
 Approx polarizability:      74.105       1.387      74.775      -0.902       3.537      63.319
 Leave Link  601 at Thu Mar 27 17:18:43 2025, MaxMem=  8053063680 cpu:               0.0 elap:               0.0
 (Enter /home/apps/g16_C02_zen2/g16/l9999.exe)

 This type of calculation cannot be archived.

      TO SUSPECT YOUR OWN MORTALITY IS TO KNOW THE BEGINNING OF TERROR.

 Normal termination of Gaussian 16 at Thu Mar 27 17:18:43 2025.
